+ 1 0 1 tcp 40 ------- 1 0.0 2.0 0 0
- 1 0 1 tcp 40 ------- 1 0.0 2.0 0 0
r 1.010213 0 1 tcp 40 ------- 1 0.0 2.0 0 0
+ 1.010213 1 2 tcp 40 ------- 1 0.0 2.0 0 0
- 1.010213 1 2 tcp 40 ------- 1 0.0 2.0 0 0
r 1.020427 1 2 tcp 40 ------- 1 0.0 2.0 0 0
+ 1.020427 2 0 ack 40 ------- 2 2.0 0.0 1224 1
- 1.020427 2 0 ack 40 ------- 2 2.0 0.0 1224 1
r 1.03064 2 0 ack 40 ------- 2 2.0 0.0 1224 1
+ 1.03064 0 1 tcp 40 ------- 1 0.0 2.0 1 2
- 1.03064 0 1 tcp 40 ------- 1 0.0 2.0 1 2
+ 1.03064 0 1 tcp 440 ------- 1 0.0 2.0 1 3
- 1.030853 0 1 tcp 440 ------- 1 0.0 2.0 1 3
r 1.040853 0 1 tcp 40 ------- 1 0.0 2.0 1 2
+ 1.040853 1 2 tcp 40 ------- 1 0.0 2.0 1 2
- 1.040853 1 2 tcp 40 ------- 1 0.0 2.0 1 2
r 1.0432 0 1 tcp 440 ------- 1 0.0 2.0 1 3
+ 1.0432 1 2 tcp 440 ------- 1 0.0 2.0 1 3
- 1.0432 1 2 tcp 440 ------- 1 0.0 2.0 1 3
r 1.051067 1 2 tcp 40 ------- 1 0.0 2.0 1 2
r 1.055547 1 2 tcp 440 ------- 1 0.0 2.0 1 3
+ 1.1 2 0 ack 40 ------- 2 2.0 0.0 1225 4
- 1.1 2 0 ack 40 ------- 2 2.0 0.0 1225 4
r 1.110213 2 0 ack 40 ------- 2 2.0 0.0 1225 4
